# vtk DataFile Version 3.0
d-2__ created by libgimli-v1.5.0-35-g5443be83
ASCII
DATASET UNSTRUCTURED_GRID
POINTS 119 double
-5.368	0	0
-3.64	0	0
-2.2	0	0
-1	0	0
0	0	0
1	0	0
2	0	0
3	0	0
4	0	0
5	0	0
6	0	0
7	0	0
8	0	0
9	0	0
10.2	0	0
11.64	0	0
13.368	0	0
-5.368	-1	0
-3.64	-1	0
-2.2	-1	0
-1	-1	0
0	-1	0
1	-1	0
2	-1	0
3	-1	0
4	-1	0
5	-1	0
6	-1	0
7	-1	0
8	-1	0
9	-1	0
10.2	-1	0
11.64	-1	0
13.368	-1	0
-5.368	-2	0
-3.64	-2	0
-2.2	-2	0
-1	-2	0
0	-2	0
1	-2	0
2	-2	0
3	-2	0
4	-2	0
5	-2	0
6	-2	0
7	-2	0
8	-2	0
9	-2	0
10.2	-2	0
11.64	-2	0
13.368	-2	0
-5.368	-3.2	0
-3.64	-3.2	0
-2.2	-3.2	0
-1	-3.2	0
0	-3.2	0
1	-3.2	0
2	-3.2	0
3	-3.2	0
4	-3.2	0
5	-3.2	0
6	-3.2	0
7	-3.2	0
8	-3.2	0
9	-3.2	0
10.2	-3.2	0
11.64	-3.2	0
13.368	-3.2	0
-5.368	-4.64	0
-3.64	-4.64	0
-2.2	-4.64	0
-1	-4.64	0
0	-4.64	0
1	-4.64	0
2	-4.64	0
3	-4.64	0
4	-4.64	0
5	-4.64	0
6	-4.64	0
7	-4.64	0
8	-4.64	0
9	-4.64	0
10.2	-4.64	0
11.64	-4.64	0
13.368	-4.64	0
-5.368	-6.368	0
-3.64	-6.368	0
-2.2	-6.368	0
-1	-6.368	0
0	-6.368	0
1	-6.368	0
2	-6.368	0
3	-6.368	0
4	-6.368	0
5	-6.368	0
6	-6.368	0
7	-6.368	0
8	-6.368	0
9	-6.368	0
10.2	-6.368	0
11.64	-6.368	0
13.368	-6.368	0
-5.368	-8.4416	0
-3.64	-8.4416	0
-2.2	-8.4416	0
-1	-8.4416	0
0	-8.4416	0
1	-8.4416	0
2	-8.4416	0
3	-8.4416	0
4	-8.4416	0
5	-8.4416	0
6	-8.4416	0
7	-8.4416	0
8	-8.4416	0
9	-8.4416	0
10.2	-8.4416	0
11.64	-8.4416	0
13.368	-8.4416	0
CELLS 96 480
4	0	1	18	17	
4	1	2	19	18	
4	2	3	20	19	
4	3	4	21	20	
4	4	5	22	21	
4	5	6	23	22	
4	6	7	24	23	
4	7	8	25	24	
4	8	9	26	25	
4	9	10	27	26	
4	10	11	28	27	
4	11	12	29	28	
4	12	13	30	29	
4	13	14	31	30	
4	14	15	32	31	
4	15	16	33	32	
4	17	18	35	34	
4	18	19	36	35	
4	19	20	37	36	
4	20	21	38	37	
4	21	22	39	38	
4	22	23	40	39	
4	23	24	41	40	
4	24	25	42	41	
4	25	26	43	42	
4	26	27	44	43	
4	27	28	45	44	
4	28	29	46	45	
4	29	30	47	46	
4	30	31	48	47	
4	31	32	49	48	
4	32	33	50	49	
4	34	35	52	51	
4	35	36	53	52	
4	36	37	54	53	
4	37	38	55	54	
4	38	39	56	55	
4	39	40	57	56	
4	40	41	58	57	
4	41	42	59	58	
4	42	43	60	59	
4	43	44	61	60	
4	44	45	62	61	
4	45	46	63	62	
4	46	47	64	63	
4	47	48	65	64	
4	48	49	66	65	
4	49	50	67	66	
4	51	52	69	68	
4	52	53	70	69	
4	53	54	71	70	
4	54	55	72	71	
4	55	56	73	72	
4	56	57	74	73	
4	57	58	75	74	
4	58	59	76	75	
4	59	60	77	76	
4	60	61	78	77	
4	61	62	79	78	
4	62	63	80	79	
4	63	64	81	80	
4	64	65	82	81	
4	65	66	83	82	
4	66	67	84	83	
4	68	69	86	85	
4	69	70	87	86	
4	70	71	88	87	
4	71	72	89	88	
4	72	73	90	89	
4	73	74	91	90	
4	74	75	92	91	
4	75	76	93	92	
4	76	77	94	93	
4	77	78	95	94	
4	78	79	96	95	
4	79	80	97	96	
4	80	81	98	97	
4	81	82	99	98	
4	82	83	100	99	
4	83	84	101	100	
4	85	86	103	102	
4	86	87	104	103	
4	87	88	105	104	
4	88	89	106	105	
4	89	90	107	106	
4	90	91	108	107	
4	91	92	109	108	
4	92	93	110	109	
4	93	94	111	110	
4	94	95	112	111	
4	95	96	113	112	
4	96	97	114	113	
4	97	98	115	114	
4	98	99	116	115	
4	99	100	117	116	
4	100	101	118	117	
CELL_TYPES 96
9 9 9 9 9 9 9 9 9 9 9 9 9 9 9 9 9 9 9 9 9 9 9 9 9 9 9 9 9 9 9 9 9 9 9 9 9 9 9 9 9 9 9 9 9 9 9 9 9 9 9 9 9 9 9 9 9 9 9 9 9 9 9 9 9 9 9 9 9 9 9 9 9 9 9 9 9 9 9 9 9 9 9 9 9 9 9 9 9 9 9 9 9 9 9 9 
CELL_DATA 96
SCALARS Coverage double 1
LOOKUP_TABLE default
1 1 1 1 1 1 1 1 1 1 1 1 1 1 1 1 1 1 1 1 1 1 1 1 1 1 1 1 1 1 1 1 1 1 1 1 1 1 1 1 1 1 1 1 1 1 1 1 1 1 1 1 1 1 1 1 1 1 1 1 1 1 1 1 1 1 1 1 1 1 1 1 1 1 1 1 1 1 1 1 1 1 1 1 1 1 1 1 1 1 1 1 1 1 1 1 
SCALARS Marker double 1
LOOKUP_TABLE default
1 1 1 1 2 2 2 2 2 2 2 2 1 1 1 1 1 1 1 1 2 2 2 2 2 2 2 2 1 1 1 1 1 1 1 1 1 1 1 1 1 1 1 1 1 1 1 1 1 1 1 1 1 1 1 1 1 1 1 1 1 1 1 1 1 1 1 1 1 1 1 1 1 1 1 1 1 1 1 1 1 1 1 1 1 1 1 1 1 1 1 1 1 1 1 1 
SCALARS Resistivity double 1
LOOKUP_TABLE default
1 1 1 1 1 1 1 1 1 1 1 1 1 1 1 1 1 1 1 1 1 1 1 1 1 1 1 1 1 1 1 1 1 1 1 1 1 1 1 1 1 1 1 1 1 1 1 1 1 1 1 1 1 1 1 1 1 1 1 1 1 1 1 1 1 1 1 1 1 1 1 1 1 1 1 1 1 1 1 1 1 1 1 1 1 1 1 1 1 1 1 1 1 1 1 1 
SCALARS Resistivity_(log10) double 1
LOOKUP_TABLE default
0 0 0 0 0 0 0 0 0 0 0 0 0 0 0 0 0 0 0 0 0 0 0 0 0 0 0 0 0 0 0 0 0 0 0 0 0 0 0 0 0 0 0 0 0 0 0 0 0 0 0 0 0 0 0 0 0 0 0 0 0 0 0 0 0 0 0 0 0 0 0 0 0 0 0 0 0 0 0 0 0 0 0 0 0 0 0 0 0 0 0 0 0 0 0 0 
SCALARS S_Coverage double 1
LOOKUP_TABLE default
1 1 1 1 1 1 1 1 1 1 1 1 1 1 1 1 1 1 1 1 1 1 1 1 1 1 1 1 1 1 1 1 1 1 1 1 1 1 1 1 1 1 1 1 1 1 1 1 1 1 1 1 1 1 1 1 1 1 1 1 1 1 1 1 1 1 1 1 1 1 1 1 1 1 1 1 1 1 1 1 1 1 1 1 1 1 1 1 1 1 1 1 1 1 1 1 
POINT_DATA 119
