# vtk DataFile Version 3.0
d-2__ created by libgimli-v1.5.3-50-g9b352bc4
ASCII
DATASET UNSTRUCTURED_GRID
POINTS 6307 double
-395.48423601695	809.67	0
-329.23686334746	809.67	0
-274.03071945622	809.67	0
-228.02559954685	809.67	0
-189.68799962237	809.67	0
-157.73999968531	809.67	0
-131.11666640443	809.67	0
-108.93055533702	809.67	0
-90.442129447518	809.67	0
-75.035107872932	809.67	0
-62.195923227443	809.67	0
-51.496602689536	809.67	0
-42.58050224128	809.67	0
-35.1504185344	809.67	0
-28.958682112	809.67	0
-23.79890176	809.67	0
-19.4990848	809.67	0
-15.915904	809.67	0
-12.92992	809.67	0
-10.4416	809.67	0
-8.368	809.67	0
-6.64	809.67	0
-5.2	809.67	0
-4	809.67	0
-3	809.67	0
-2	809.67	0
-1	809.67	0
0	809.67	0
1	809.858	0
2	810.227	0
3	810.776	0
4	811.643	0
5	811.787	0
6	811.586	0
7	811.35	0
8	811.312	0
9	811.055	0
10	811.004	0
11	811.123	0
12	811.14	0
13	811.331	0
14	811.124	0
15	811.438	0
16	811.741	0
17	812.044	0
18	812.082	0
19	812.256	0
20	812.267	0
21	812.32	0
22	812.403	0
23	812.473	0
24	812.539	0
25	812.572	0
26	812.616	0
27	812.574	0
28	812.794	0
29	812.78	0
30	812.578	0
31	812.735	0
32	812.387	0
33	812.038	0
34	811.465	0
35	811.327	0
36	811.409	0
37	811.543	0
38	811.57	0
39	811.621	0
40	811.692	0
41	811.752	0
42	811.766	0
43	811.471	0
44	811.044	0
45	810.961	0
46	810.773	0
47	810.818	0
48	810.733	0
49	810.699	0
50	810.621	0
51	810.68	0
52	810.644	0
53	810.692	0
54	810.755	0
55	810.885	0
56	811.174	0
57	811.196	0
58	811.239	0
59	811.309	0
60	811.378	0
61	811.569	0
62	811.76	0
63	811.795	0
64	811.843	0
65	811.843	0
66	811.843	0
67	811.843	0
68	811.843	0
69.2	811.843	0
70.64	811.843	0
72.368	811.843	0
74.4416	811.843	0
76.92992	811.843	0
79.915904	811.843	0
83.4990848	811.843	0
87.79890176	811.843	0
92.958682112	811.843	0
99.1504185344	811.843	0
106.58050224128	811.843	0
115.49660268954	811.843	0
126.19592322744	811.843	0
139.03510787293	811.843	0
154.44212944752	811.843	0
172.93055533702	811.843	0
195.11666640443	811.843	0
221.73999968531	811.843	0
253.68799962237	811.843	0
292.02559954685	811.843	0
338.03071945622	811.843	0
393.23686334746	811.843	0
459.48423601695	811.843	0
-395.48423601695	808.67	0
-329.23686334746	808.67	0
-274.03071945622	808.67	0
-228.02559954685	808.67	0
-189.68799962237	808.67	0
-157.73999968531	808.67	0
-131.11666640443	808.67	0
-108.93055533702	808.67	0
-90.442129447518	808.67	0
-75.035107872932	808.67	0
-62.195923227443	808.67	0
-51.496602689536	808.67	0
-42.58050224128	808.67	0
-35.1504185344	808.67	0
-28.958682112	808.67	0
-23.79890176	808.67	0
-19.4990848	808.67	0
-15.915904	808.67	0
-12.92992	808.67	0
-10.4416	808.67	0
-8.368	808.67	0
-6.64	808.67	0
-5.2	808.67	0
-4	808.67	0
-3	808.67	0
-2	808.67	0
-1	808.67	0
0	808.67	0
1	808.858	0
2	809.227	0
3	809.776	0
4	810.643	0
5	810.787	0
6	810.586	0
7	810.35	0
8	810.312	0
9	810.055	0
10	810.004	0
11	810.123	0
12	810.14	0
13	810.331	0
14	810.124	0
15	810.438	0
16	810.741	0
17	811.044	0
18	811.082	0
19	811.256	0
20	811.267	0
21	811.32	0
22	811.403	0
23	811.473	0
24	811.539	0
25	811.572	0
26	811.616	0
27	811.574	0
28	811.794	0
29	811.78	0
30	811.578	0
31	811.735	0
32	811.387	0
33	811.038	0
34	810.465	0
35	810.327	0
36	810.409	0
37	810.543	0
38	810.57	0
39	810.621	0
40	810.692	0
41	810.752	0
42	810.766	0
43	810.471	0
44	810.044	0
45	809.961	0
46	809.773	0
47	809.818	0
48	809.733	0
49	809.699	0
50	809.621	0
51	809.68	0
52	809.644	0
53	809.692	0
54	809.755	0
55	809.885	0
56	810.174	0
57	810.196	0
58	810.239	0
59	810.309	0
60	810.378	0
61	810.569	0
62	810.76	0
63	810.795	0
64	810.843	0
65	810.843	0
66	810.843	0
67	810.843	0
68	810.843	0
69.2	810.843	0
70.64	810.843	0
72.368	810.843	0
74.4416	810.843	0
76.92992	810.843	0
79.915904	810.843	0
83.4990848	810.843	0
87.79890176	810.843	0
92.958682112	810.843	0
99.1504185344	810.843	0
106.58050224128	810.843	0
115.49660268954	810.843	0
126.19592322744	810.843	0
139.03510787293	810.843	0
154.44212944752	810.843	0
172.93055533702	810.843	0
195.11666640443	810.843	0
221.73999968531	810.843	0
253.68799962237	810.843	0
292.02559954685	810.843	0
338.03071945622	810.843	0
393.23686334746	810.843	0
459.48423601695	810.843	0
-395.48423601695	807.67	0
-329.23686334746	807.67	0
-274.03071945622	807.67	0
-228.02559954685	807.67	0
-189.68799962237	807.67	0
-157.73999968531	807.67	0
-131.11666640443	807.67	0
-108.93055533702	807.67	0
-90.442129447518	807.67	0
-75.035107872932	807.67	0
-62.195923227443	807.67	0
-51.496602689536	807.67	0
-42.58050224128	807.67	0
-35.1504185344	807.67	0
-28.958682112	807.67	0
-23.79890176	807.67	0
-19.4990848	807.67	0
-15.915904	807.67	0
-12.92992	807.67	0
-10.4416	807.67	0
-8.368	807.67	0
-6.64	807.67	0
-5.2	807.67	0
-4	807.67	0
-3	807.67	0
-2	807.67	0
-1	807.67	0
0	807.67	0
1	807.858	0
2	808.227	0
3	808.776	0
4	809.643	0
5	809.787	0
6	809.586	0
7	809.35	0
8	809.312	0
9	809.055	0
10	809.004	0
11	809.123	0
12	809.14	0
13	809.331	0
14	809.124	0
15	809.438	0
16	809.741	0
17	810.044	0
18	810.082	0
19	810.256	0
20	810.267	0
21	810.32	0
22	810.403	0
23	810.473	0
24	810.539	0
25	810.572	0
26	810.616	0
27	810.574	0
28	810.794	0
29	810.78	0
30	810.578	0
31	810.735	0
32	810.387	0
33	810.038	0
34	809.465	0
35	809.327	0
36	809.409	0
37	809.543	0
38	809.57	0
39	809.621	0
40	809.692	0
41	809.752	0
42	809.766	0
43	809.471	0
44	809.044	0
45	808.961	0
46	808.773	0
47	808.818	0
48	808.733	0
49	808.699	0
50	808.621	0
51	808.68	0
52	808.644	0
53	808.692	0
54	808.755	0
55	808.885	0
56	809.174	0
57	809.196	0
58	809.239	0
59	809.309	0
60	809.378	0
61	809.569	0
62	809.76	0
63	809.795	0
64	809.843	0
65	809.843	0
66	809.843	0
67	809.843	0
68	809.843	0
69.2	809.843	0
70.64	809.843	0
72.368	809.843	0
74.4416	809.843	0
76.92992	809.843	0
79.915904	809.843	0
83.4990848	809.843	0
87.79890176	809.843	0
92.958682112	809.843	0
99.1504185344	809.843	0
106.58050224128	809.843	0
115.49660268954	809.843	0
126.19592322744	809.843	0
139.03510787293	809.843	0
154.44212944752	809.843	0
172.93055533702	809.843	0
195.11666640443	809.843	0
221.73999968531	809.843	0
253.68799962237	809.843	0
292.02559954685	809.843	0
338.03071945622	809.843	0
393.23686334746	809.843	0
459.48423601695	809.843	0
-395.48423601695	806.67	0
-329.23686334746	806.67	0
-274.03071945622	806.67	0
-228.02559954685	806.67	0
-189.68799962237	806.67	0
-157.73999968531	806.67	0
-131.11666640443	806.67	0
-108.93055533702	806.67	0
-90.442129447518	806.67	0
-75.035107872932	806.67	0
-62.195923227443	806.67	0
-51.496602689536	806.67	0
-42.58050224128	806.67	0
-35.1504185344	806.67	0
-28.958682112	806.67	0
-23.79890176	806.67	0
-19.4990848	806.67	0
-15.915904	806.67	0
-12.92992	806.67	0
-10.4416	806.67	0
-8.368	806.67	0
-6.64	806.67	0
-5.2	806.67	0
-4	806.67	0
-3	806.67	0
-2	806.67	0
-1	806.67	0
0	806.67	0
1	806.858	0
2	807.227	0
3	807.776	0
4	808.643	0
5	808.787	0
6	808.586	0
7	808.35	0
8	808.312	0
9	808.055	0
10	808.004	0
11	808.123	0
12	808.14	0
13	808.331	0
14	808.124	0
15	808.438	0
16	808.741	0
17	809.044	0
18	809.082	0
19	809.256	0
20	809.267	0
21	809.32	0
22	809.403	0
23	809.473	0
24	809.539	0
25	809.572	0
26	809.616	0
27	809.574	0
28	809.794	0
29	809.78	0
30	809.578	0
31	809.735	0
32	809.387	0
33	809.038	0
34	808.465	0
35	808.327	0
36	808.409	0
37	808.543	0
38	808.57	0
39	808.621	0
40	808.692	0
41	808.752	0
42	808.766	0
43	808.471	0
44	808.044	0
45	807.961	0
46	807.773	0
47	807.818	0
48	807.733	0
49	807.699	0
50	807.621	0
51	807.68	0
52	807.644	0
53	807.692	0
54	807.755	0
55	807.885	0
56	808.174	0
57	808.196	0
58	808.239	0
59	808.309	0
60	808.378	0
61	808.569	0
62	808.76	0
63	808.795	0
64	808.843	0
65	808.843	0
66	808.843	0
67	808.843	0
68	808.843	0
69.2	808.843	0
70.64	808.843	0
72.368	808.843	0
74.4416	808.843	0
76.92992	808.843	0
79.915904	808.843	0
83.4990848	808.843	0
87.79890176	808.843	0
92.958682112	808.843	0
99.1504185344	808.843	0
106.58050224128	808.843	0
115.49660268954	808.843	0
126.19592322744	808.843	0
139.03510787293	808.843	0
154.44212944752	808.843	0
172.93055533702	808.843	0
195.11666640443	808.843	0
221.73999968531	808.843	0
253.68799962237	808.843	0
292.02559954685	808.843	0
338.03071945622	808.843	0
393.23686334746	808.843	0
459.48423601695	808.843	0
-395.48423601695	805.67	0
-329.23686334746	805.67	0
-274.03071945622	805.67	0
-228.02559954685	805.67	0
-189.68799962237	805.67	0
-157.73999968531	805.67	0
-131.11666640443	805.67	0
-108.93055533702	805.67	0
-90.442129447518	805.67	0
-75.035107872932	805.67	0
-62.195923227443	805.67	0
-51.496602689536	805.67	0
-42.58050224128	805.67	0
-35.1504185344	805.67	0
-28.958682112	805.67	0
-23.79890176	805.67	0
-19.4990848	805.67	0
-15.915904	805.67	0
-12.92992	805.67	0
-10.4416	805.67	0
-8.368	805.67	0
-6.64	805.67	0
-5.2	805.67	0
-4	805.67	0
-3	805.67	0
-2	805.67	0
-1	805.67	0
0	805.67	0
1	805.858	0
2	806.227	0
3	806.776	0
4	807.643	0
5	807.787	0
6	807.586	0
7	807.35	0
8	807.312	0
9	807.055	0
10	807.004	0
11	807.123	0
12	807.14	0
13	807.331	0
14	807.124	0
15	807.438	0
16	807.741	0
17	808.044	0
18	808.082	0
19	808.256	0
20	808.267	0
21	808.32	0
22	808.403	0
23	808.473	0
24	808.539	0
25	808.572	0
26	808.616	0
27	808.574	0
28	808.794	0
29	808.78	0
30	808.578	0
31	808.735	0
32	808.387	0
33	808.038	0
34	807.465	0
35	807.327	0
36	807.409	0
37	807.543	0
38	807.57	0
39	807.621	0
40	807.692	0
41	807.752	0
42	807.766	0
43	807.471	0
44	807.044	0
45	806.961	0
46	806.773	0
47	806.818	0
48	806.733	0
49	806.699	0
50	806.621	0
51	806.68	0
52	806.644	0
53	806.692	0
54	806.755	0
55	806.885	0
56	807.174	0
57	807.196	0
58	807.239	0
59	807.309	0
[...]
CELL_DATA 6136
SCALARS Coverage double 1
LOOKUP_TABLE default
1 1 1 1 1 1 1 1 1 1 1 1 1 1 1 1 1 1 1 1 1 1 1 1 1 1 1 1 1 1 1 1 1 1 1 1 1 1 1 1 1 1 1 1 1 1 1 1 1 1 1 1 1 1 1 1 1 1 1 1 1 1 1 1 1 1 1 1 1 1 1 1 1 1 1 1 1 1 1 1 1 1 1 1 1 1 1 1 1 1 1 1 1 1 1 1 1 1 1 1 1 1 1 1 1 1 1 1 1 1 1 1 1 1 1 1 1 1 1 1 1 1 1 1 1 1 1 1 1 1 1 1 1 1 1 1 1 1 1 1 1 1 1 1 1 1 1 1 1 1 1 1 1 1 1 1 1 1 1 1 1 1 1 1 1 1 1 1 1 1 1 1 1 1 1 1 1 1 1 1 1 1 1 1 1 1 1 1 1 1 1 1 1 1 1 1 1 1 1 1 1 1 1 1 1 1 1 1 1 1 1 1 1 1 1 1 1 1 1 1 1 1 1 1 1 1 1 1 1 1 1 1 1 1 1 1 1 1 1 1 1 1 1 1 1 1 1 1 1 1 1 1 1 1 1 1 1 1 1 1 1 1 1 1 1 1 1 1 1 1 1 1 1 1 1 1 1 1 1 1 1 1 1 1 1 1 1 1 1 1 1 1 1 1 1 1 1 1 1 1 1 1 1 1 1 1 1 1 1 1 1 1 1 1 1 1 1 1 1 1 1 1 1 1 1 1 1 1 1 1 1 1 1 1 1 1 1 1 1 1 1 1 1 1 1 1 1 1 1 1 1 1 1 1 1 1 1 1 1 1 1 1 1 1 1 1 1 1 1 1 1 1 1 1 1 1 1 1 1 1 1 1 1 1 1 1 1 1 1 1 1 1 1 1 1 1 1 1 1 1 1 1 1 1 1 1 1 1 1 1 1 1 1 1 1 1 1 1 1 1 1 1 1 1 1 1 1 1 1 1 1 1 1 1 1 1 1 1 1 1 1 1 1 1 1 1 1 1 1 1 1 1 1 1 1 1 1 1 1 1 1 1 1 1 1 1 1 1 1 1 1 1 1 1 1 1 1 1 1 1 1 1 1 1 1 1 1 1 1 1 1 1 1 1 1 1 1 1 1 1 1 1 1 1 1 1 1 1 1 1 1 1 1 1 1 1 1 1 1 1 1 1 1 1 1 1 1 1 1 1 1 1 1 1 1 1 1 1 1 1 1 1 1 1 1 1 1 1 1 1 1 1 1 1 1 1 1 1 1 1 1 1 1 1 1 1 1 1 1 1 1 1 1 1 1 1 1 1 1 1 1 1 1 1 1 1 1 1 1 1 1 1 1 1 1 1 1 1 1 1 1 1 1 1 1 1 1 1 1 1 1 1 1 1 1 1 1 1 1 1 1 1 1 1 1 1 1 1 1 1 1 1 1 1 1 1 1 1 1 1 1 1 1 1 1 1 1 1 1 1 1 1 1 1 1 1 1 1 1 1 1 1 1 1 1 1 1 1 1 1 1 1 1 1 1 1 1 1 1 1 1 1 1 1 1 1 1 1 1 1 1 1 1 1 1 1 1 1 1 1 1 1 1 1 1 1 1 1 1 1 1 1 1 1 1 1 1 1 1 1 1 1 1 1 1 1 1 1 1 1 1 1 1 1 1 1 1 1 1 1 1 1 1 1 1 1 1 1 1 1 1 1 1 1 1 1 1 1 1 1 1 1 1 1 1 1 1 1 1 1 1 1 1 1 1 1 1 1 1 1 1 1 1 1 1 1 1 1 1 1 1 1 1 1 1 1 1 1 1 1 1 1 1 1 1 1 1 1 1 1 1 1 1 1 1 1 1 1 1 1 1 1 1 1 1 1 1 1 1 1 1 1 1 1 1 1 1 1 1 1 1 1 1 1 1 1 1 1 1 1 1 1 1 1 1 1 1 1 1 1 1 1 1 1 1 1 1 1 1 1 1 1 1 1 1 1 1 1 1 1 1 1 1 1 1 1 1 1 1 1 1 1 1 1 1 1 1 1 1 1 1 1 1 1 1 1 1 1 1 1 1 1 1 1 1 1 1 1 1 1 1 1 1 1 1 1 1 1 1 1 1 1 1 1 1 1 1 1 1 1 1 1 1 1 1 1 1 1 1 1 1 1 1 1 1 1 1 1 1 1 1 1 1 1 1 1 1 1 1 1 1 1 1 1 1 1 1 1 1 1 1 1 1 1 1 1 1 1 1 1 1 1 1 1 1 1 1 1 1 1 1 1 1 1 1 1 1 1 1 1 1 1 1 1 1 1 1 1 1 1 1 1 1 1 1 1 1 1 1 1 1 1 1 1 1 1 1 1 1 1 1 1 1 1 1 1 1 1 1 1 1 1 1 1 1 1 1 1 1 1 1 1 1 1 1 1 1 1 1 1 1 1 1 1 1 1 1 1 1 1 1 1 1 1 1 1 1 1 1 1 1 1 1 1 1 1 1 1 1 1 1 1 1 1 1 1 1 1 1 1 1 1 1 1 1 1 1 1 1 1 1 1 1 1 1 1 1 1 1 1 1 1 1 1 1 1 1 1 1 1 1 1 1 1 1 1 1 1 1 1 1 1 1 1 1 1 1 1 1 1 1 1 1 1 1 1 1 1 1 1 1 1 1 1 1 1 1 1 1 1 1 1 1 1 1 1 1 1 1 1 1 1 1 1 1 1 1 1 1 1 1 1 1 1 1 1 1 1 1 1 1 1 1 1 1 1 1 1 1 1 1 1 1 1 1 1 1 1 1 1 1 1 1 1 1 1 1 1 1 1 1 1 1 1 1 1 1 1 1 1 1 1 1 1 1 1 1 1 1 1 1 1 1 1 1 1 1 1 1 1 1 1 1 1 1 1 1 1 1 1 1 1 1 1 1 1 1 1 1 1 1 1 1 1 1 1 1 1 1 1 1 1 1 1 1 1 1 1 1 1 1 1 1 1 1 1 1 1 1 1 1 1 1 1 1 1 1 1 1 1 1 1 1 1 1 1 1 1 1 1 1 1 1 1 1 1 1 1 1 1 1 1 1 1 1 1 1 1 1 1 1 1 1 1 1 1 1 1 1 1 1 1 1 1 1 1 1 1 1 1 1 1 1 1 1 1 1 1 1 1 1 1 1 1 1 1 1 1 1 1 1 1 1 1 1 1 1 1 1 1 1 1 1 1 1 1 1 1 1 1 1 1 1 1 1 1 1 1 1 1 1 1 1 1 1 1 1 1 1 1 1 1 1 1 1 1 1 1 1 1 1 1 1 1 1 1 1 1 1 1 1 1 1 1 1 1 1 1 1 1 1 1 1 1 1 1 1 1 1 1 1 1 1 1 1 1 1 1 1 1 1 1 1 1 1 1 1 1 1 1 1 1 1 1 1 1 1 1 1 1 1 1 1 1 1 1 1 1 1 1 1 1 1 1 1 1 1 1 1 1 1 1 1 1 1 1 1 1 1 1 1 1 1 1 1 1 1 1 1 1 1 1 1 1 1 1 1 1 1 1 1 1 1 1 1 1 1 1 1 1 1 1 1 1 1 1 1 1 1 1 1 1 1 1 1 1 1 1 1 1 1 1 1 1 1 1 1 1 1 1 1 1 1 1 1 1 1 1 1 1 1 1 1 1 1 1 1 1 1 1 1 1 1 1 1 1 1 1 1 1 1 1 1 1 1 1 1 1 1 1 1 1 1 1 1 1 1 1 1 1 1 1 1 1 1 1 1 1 1 1 1 1 1 1 1 1 1 1 1 1 1 1 1 1 1 1 1 1 1 1 1 1 1 1 1 1 1 1 1 1 1 1 1 1 1 1 1 1 1 1 1 1 1 1 1 1 1 1 1 1 1 1 1 1 1 1 1 1 1 1 1 1 1 1 1 1 1 1 1 1 1 1 1 1 1 1 1 1 1 1 1 1 1 1 1 1 1 1 1 1 1 1 1 1 1 1 1 1 1 1 1 1 1 1 1 1 1 1 1 1 1 1 1 1 1 1 1 1 1 1 1 1 1 1 1 1 1 1 1 1 1 1 1 1 1 1 1 1 1 1 1 1 1 1 1 1 1 1 1 1 1 1 1 1 1 1 1 1 1 1 1 1 1 1 1 1 1 1 1 1 1 1 1 1 1 1 1 1 1 1 1 1 1 1 1 1 1 1 1 1 1 1 1 1 1 1 1 1 1 1 1 1 1 1 1 1 1 1 1 1 1 1 1 1 1 1 1 1 1 1 1 1 1 1 1 1 1 1 1 1 1 1 1 1 1 1 1 1 1 1 1 1 1 1 1 1 1 1 1 1 1 1 1 1 1 1 1 1 1 1 1 1 1 1 1 1 1 1 1 1 1 1 1 1 1 1 1 1 1 1 1 1 1 1 1 1 1 1 1 1 1 1 1 1 1 1 1 1 1 1 1 1 1 1 1 1 1 1 1 1 1 1 1 1 1 1 1 1 1 1 1 1 1 1 1 1 1 1 1 1 1 1 1 1 1 1 1 1 1 1 1 1 1 1 1 1 1 1 1 1 1 1 1 1 1 1 1 1 1 1 1 1 1 1 1 1 1 1 1 1 1 1 1 1 1 1 1 1 1 1 1 1 1 1 1 1 1 1 1 1 1 1 1 1 1 1 1 1 1 1 1 1 1 1 1 1 1 1 1 1 1 1 1 1 1 1 1 1 1 1 1 1 1 1 1 1 1 1 1 1 1 1 1 1 1 1 1 1 1 1 1 1 1 1 1 1 1 1 1 1 1 1 1 1 1 1 1 1 1 1 1 1 1 1 1 1 1 1 1 1 1 1 1 1 1 1 1 1 1 1 1 1 1 1 1 1 1 1 1 1 1 1 1 1 1 1 1 1 1 1 1 1 1 1 1 1 1 1 1 1 1 1 1 1 1 1 1 1 1 1 1 1 1 1 1 1 1 1 1 1 1 1 1 1 1 1 1 1 1 1 1 1 1 1 1 1 1 1 1 1 1 1 1 1 1 1 1 1 1 1 1 1 1 1 1 1 1 1 1 1 1 1 1 1 1 1 1 1 1 1 1 1 1 1 1 1 1 1 1 1 1 1 1 1 1 1 1 1 1 1 1 1 1 1 1 1 1 1 1 1 1 1 1 1 1 1 1 1 1 1 1 1 1 1 1 1 1 1 1 1 1 1 1 1 1 1 1 1 1 1 1 1 1 1 1 1 1 1 1 1 1 1 1 1 1 1 1 1 1 1 1 1 1 1 1 1 1 1 1 1 1 1 1 1 1 1 1 1 1 1 1 1 1 1 1 1 1 1 1 1 1 1 1 1 1 1 1 1 1 1 1 1 1 1 1 1 1 1 1 1 1 1 1 1 1 1 1 1 1 1 1 1 1 1 1 1 1 1 1 1 1 1 1 1 1 1 1 1 1 1 1 1 1 1 1 1 1 1 1 1 1 1 1 1 1 1 1 1 1 1 1 1 1 1 1 1 1 1 1 1 1 1 1 1 1 1 1 1 1 1 1 1 1 1 1 1 1 1 1 1 1 1 1 1 1 1 1 1 1 1 1 1 1 1 1 1 1 1 1 1 1 1 1 1 1 1 1 1 1 1 1 1 1 1 1 1 1 1 1 1 1 1 1 1 1 1 1 1 1 1 1 1 1 1 1 1 1 1 1 1 1 1 1 1 1 1 1 1 1 1 1 1 1 1 1 1 1 1 1 1 1 1 1 1 1 1 1 1 1 1 1 1 1 1 1 1 1 1 1 1 1 1 1 1 1 1 1 1 1 1 1 1 1 1 1 1 1 1 1 1 1 1 1 1 1 1 1 1 1 1 1 1 1 1 1 1 1 1 1 1 1 1 1 1 1 1 1 1 1 1 1 1 1 1 1 1 1 1 1 1 1 1 1 1 1 1 1 1 1 1 1 1 1 1 1 1 1 1 1 1 1 1 1 1 1 1 1 1 1 1 1 1 1 1 1 1 1 1 1 1 1 1 1 1 1 1 1 1 1 1 1 1 1 1 1 1 1 1 1 1 1 1 1 1 1 1 1 1 1 1 1 1 1 1 1 1 1 1 1 1 1 1 1 1 1 1 1 1 1 1 1 1 1 1 1 1 1 1 1 1 1 1 1 1 1 1 1 1 1 1 1 1 1 1 1 1 1 1 1 1 1 1 1 1 1 1 1 1 1 1 1 1 1 1 1 1 1 1 1 1 1 1 1 1 1 1 1 1 1 1 1 1 1 1 1 1 1 1 1 1 1 1 1 1 1 1 1 1 1 1 1 1 1 1 1 1 1 1 1 1 1 1 1 1 1 1 1 1 1 1 1 1 1 1 1 1 1 1 1 1 1 1 1 1 1 1 1 1 1 1 1 1 1 1 1 1 1 1 1 1 1 1 1 1 1 1 1 1 1 1 1 1 1 1 1 1 1 1 1 1 1 1 1 1 1 1 1 1 1 1 1 1 1 1 1 1 1 1 1 1 1 1 1 1 1 1 1 1 1 1 1 1 1 1 1 1 1 1 1 1 1 1 1 1 1 1 1 1 1 1 1 1 1 1 1 1 1 1 1 1 1 1 1 1 1 1 1 1 1 1 1 1 1 1 1 1 1 1 1 1 1 1 1 1 1 1 1 1 1 1 1 1 1 1 1 1 1 1 1 1 1 1 1 1 1 1 1 1 1 1 1 1 1 1 1 1 1 1 1 1 1 1 1 1 1 1 1 1 1 1 1 1 1 1 1 1 1 1 1 1 1 1 1 1 1 1 1 1 1 1 1 1 1 1 1 1 1 1 1 1 1 1 1 1 1 1 1 1 1 1 1 1 1 1 1 1 1 1 1 1 1 1 1 1 1 1 1 1 1 1 1 1 1 1 1 1 1 1 1 1 1 1 1 1 1 1 1 1 1 1 1 1 1 1 1 1 1 1 1 1 1 1 1 1 1 1 1 1 1 1 1 1 1 1 1 1 1 1 1 1 1 1 1 1 1 1 1 1 1 1 1 1 1 1 1 1 1 1 1 1 1 1 1 1 1 1 1 1 1 1 1 1 1 1 1 1 1 1 1 1 1 1 1 1 1 1 1 1 1 1 1 1 1 1 1 1 1 1 1 1 1 1 1 1 1 1 1 1 1 1 1 1 1 1 1 1 1 1 1 1 1 1 1 1 1 1 1 1 1 1 1 1 1 1 1 1 1 1 1 1 1 1 1 1 1 1 1 1 1 1 1 1 1 1 1 1 1 1 1 1 1 1 1 1 1 1 1 1 1 1 1 1 1 1 1 1 1 1 1 1 1 1 1 1 1 1 1 1 1 1 1 1 1 1 1 1 1 1 1 1 1 1 1 1 1 1 1 1 1 1 1 1 1 1 1 1 1 1 1 1 1 1 1 1 1 1 1 1 1 1 1 1 1 1 1 1 1 1 1 1 1 1 1 1 1 1 1 1 1 1 1 1 1 1 1 1 1 1 1 1 1 1 1 1 1 1 1 1 1 1 1 1 1 1 1 1 1 1 1 1 1 1 1 1 1 1 1 1 1 1 1 1 1 1 1 1 1 1 1 1 1 1 1 1 1 1 1 1 1 1 1 1 1 1 1 1 1 1 1 1 1 1 1 1 1 1 1 1 1 1 1 1 1 1 1 1 1 1 1 1 1 1 1 1 1 1 1 1 1 1 1 1 1 1 1 1 1 1 1 1 1 1 1 1 1 1 1 1 1 1 1 1 1 1 1 1 1 1 1 1 1 1 1 1 1 1 1 1 1 1 1 1 1 1 1 1 1 1 1 1 1 1 1 1 1 1 1 1 1 1 1 1 1 1 1 1 1 1 1 1 1 1 1 1 1 1 1 1 1 1 1 1 1 1 1 1 1 1 1 1 1 1 1 1 1 1 1 1 1 1 1 1 1 1 1 1 1 1 1 1 1 1 1 1 1 1 1 1 1 1 1 1 1 1 1 1 1 1 1 1 1 1 1 1 1 1 1 1 1 1 1 1 1 1 1 1 1 1 1 1 1 1 1 1 1 1 1 1 1 1 1 1 1 1 1 1 1 1 1 1 1 1 1 1 1 1 1 1 1 1 1 1 1 1 1 1 1 1 1 1 1 1 1 1 1 1 1 1 1 1 1 1 1 1 1 1 1 1 1 1 1 1 1 1 1 1 1 1 1 1 1 1 1 1 1 1 1 1 1 1 1 1 1 1 1 1 1 1 1 1 1 1 1 1 1 1 1 1 1 1 1 1 1 1 1 1 1 1 1 1 1 1 1 1 1 1 1 1 1 1 1 1 1 1 1 1 1 1 1 1 1 1 1 1 1 1 1 1 1 1 1 1 1 1 1 1 1 1 1 1 1 1 1 1 1 1 1 1 1 1 1 1 1 1 1 1 1 1 1 1 1 1 1 1 1 1 1 1 1 1 1 1 1 1 1 1 1 1 1 1 1 1 1 1 1 1 1 1 1 1 1 1 1 1 1 1 1 1 1 1 1 1 1 1 1 1 1 1 1 1 1 1 1 1 1 1 1 1 1 1 1 1 1 1 1 1 1 1 1 1 1 1 1 1 1 1 1 1 1 1 1 1 1 1 1 1 1 1 1 1 1 1 1 1 1 1 1 1 1 1 1 1 1 1 1 1 1 1 1 1 1 1 1 1 1 1 1 1 1 1 1 1 1 1 1 1 1 1 1 1 1 1 1 1 1 1 1 1 1 1 1 1 1 1 1 1 1 1 1 1 1 1 1 1 1 1 1 1 1 1 1 1 1 1 1 1 1 1 1 1 1 1 1 1 1 1 1 1 1 1 1 1 1 1 1 1 1 1 1 1 1 1 1 1 1 1 1 1 1 1 1 1 1 1 1 1 1 1 1 1 1 1 1 1 1 1 1 1 1 1 1 1 1 1 1 1 1 1 1 1 1 1 1 1 1 1 1 1 1 1 1 1 1 1 1 1 1 1 1 1 1 1 1 1 1 1 1 1 1 1 1 1 1 1 1 1 1 1 1 1 1 1 1 1 1 1 1 1 1 1 1 1 1 1 1 1 1 1 1 1 1 1 1 1 1 1 1 1 1 1 1 1 1 1 1 1 1 1 1 1 1 1 1 1 1 1 1 1 1 1 1 1 1 1 1 1 1 1 1 1 1 1 1 1 1 1 1 1 1 1 1 1 1 1 1 1 1 1 1 1 1 1 1 1 1 1 1 1 1 1 1 1 1 1 1 1 1 1 1 1 1 1 1 1 1 1 1 1 1 1 1 1 1 1 1 1 1 1 1 1 1 1 1 1 1 1 1 1 1 1 1 1 1 1 1 1 1 1 1 1 1 1 1 1 1 1 1 1 1 1 1 1 1 1 1 1 1 1 1 1 1 1 1 1 1 1 1 1 1 1 1 1 1 1 1 1 1 1 1 1 1 1 1 1 1 1 1 1 1 1 1 1 1 1 1 1 1 1 1 1 1 1 1 1 1 1 1 1 1 1 1 1 1 1 1 1 1 1 1 1 1 1 1 1 1 1 1 1 1 1 1 1 1 1 1 1 1 1 1 1 1 1 1 1 1 1 1 1 1 1 1 1 1 1 1 1 1 1 1 1 1 1 1 1 1 1 1 1 1 1 1 1 1 1 1 1 1 1 1 1 1 1 1 1 1 1 1 1 1 1 1 1 1 1 1 1 1 1 1 1 1 1 1 1 1 1 1 1 1 1 1 1 1 1 1 1 1 1 1 1 1 1 1 1 1 1 1 1 1 1 1 1 1 1 1 1 1 1 1 1 1 1 1 1 1 1 1 1 1 1 1 1 1 1 1 1 1 1 1 1 1 1 1 1 1 1 1 1 1 1 1 1 1 1 1 1 1 1 1 1 1 1 1 1 1 1 1 1 1 1 1 1 1 1 1 1 1 1 1 1 1 1 1 1 1 1 1 1 1 1 1 1 1 1 1 1 1 1 1 1 1 1 1 1 1 1 1 1 1 1 1 1 1 1 1 1 1 1 1 1 1 1 1 1 1 1 1 1 1 1 1 1 1 1 1 1 1 1 1 1 1 1 1 1 1 1 1 1 1 1 1 1 1 1 1 1 1 1 1 1 1 1 1 1 1 1 1 1 1 1 1 1 1 1 1 1 1 1 1 1 1 1 1 1 1 1 1 1 1 1 1 1 1 1 1 1 1 1 1 1 1 1 1 1 1 1 1 1 1 1 1 1 1 1 1 1 1 1 1 1 1 1 1 1 1 1 1 1 1 1 1 1 1 1 1 1 1 1 1 1 1 1 1 1 1 1 1 1 1 1 1 1 1 1 1 1 1 1 1 1 1 1 1 1 1 1 1 1 1 1 1 1 1 1 1 1 1 1 1 1 1 1 1 1 1 1 1 1 1 1 1 1 1 1 1 1 1 1 1 1 1 1 1 1 1 1 1 1 1 1 1 1 1 1 1 1 1 1 1 1 1 1 1 1 1 1 1 1 1 1 1 1 1 1 1 1 1 1 1 1 1 1 1 1 1 1 1 1 1 1 1 1 1 1 1 1 1 1 1 1 1 1 1 1 1 1 1 1 1 1 1 1 1 1 1 1 1 1 1 1 1 1 1 1 1 1 1 1 1 1 1 1 1 1 1 1 1 1 1 1 1 1 1 1 1 1 1 1 1 1 1 1 1 1 1 1 1 1 1 1 1 1 1 1 1 1 1 1 1 1 1 1 1 1 1 1 1 1 1 1 1 1 1 1 1 1 1 1 1 1 1 1 1 1 1 1 1 1 1 1 1 1 1 1 1 1 1 1 1 1 1 1 1 1 1 1 1 1 1 1 1 1 1 1 1 1 1 1 1 1 1 1 1 1 1 1 1 1 1 1 1 1 1 1 1 1 1 1 1 1 1 1 1 1 1 1 1 1 1 1 1 1 1 1 1 1 1 1 1 1 1 1 1 1 1 1 1 1 1 1 1 1 1 1 1 1 1 1 1 1 1 1 1 1 1 1 1 1 1 1 1 1 1 1 1 1 1 1 1 1 1 1 1 1 1 1 1 1 1 1 1 1 1 1 1 1 1 1 1 1 1 1 1 1 1 1 1 1 1 1 1 1 1 1 1 1 1 1 1 1 1 1 1 1 1 1 1 1 1 1 1 1 1 1 1 1 1 1 1 1 1 1 1 1 1 1 1 1 1 1 1 1 1 1 1 1 1 1 1 1 1 1 1 1 1 1 1 1 1 1 1 1 1 1 1 1 1 1 1 1 1 1 1 1 1 1 1 1 1 1 1 1 1 1 1 1 1 1 1 1 1 1 1 1 1 1 1 1 1 1 1 1 1 1 1 1 1 1 1 1 1 1 1 1 1 1 1 1 1 1 1 1 1 1 1 1 1 1 1 1 1 1 1 1 1 1 1 1 1 1 1 1 1 1 1 1 1 1 1 1 1 1 1 1 1 1 1 1 1 1 1 1 1 1 1 1 1 1 1 1 1 1 1 1 1 1 1 1 1 1 1 1 1 1 1 1 1 1 1 1 1 1 1 1 1 1 1 1 1 1 1 1 1 1 1 1 1 1 1 1 1 1 1 1 1 1 1 1 1 1 1 1 1 1 1 1 1 1 1 1 1 1 1 1 1 1 1 1 1 1 1 1 1 1 1 1 1 1 1 1 1 1 1 1 1 1 1 1 1 1 1 1 1 1 1 1 1 1 1 1 1 1 1 1 1 1 1 1 1 1 1 1 1 1 1 1 1 1 1 1 1 1 1 1 1 1 1 1 1 1 1 1 1 1 1 1 1 1 1 1 1 1 1 1 1 1 1 1 1 1 1 1 1 1 1 1 1 1 1 1 1 1 1 1 1 1 1 1 1 1 1 1 1 1 1 1 1 1 1 1 1 1 1 1 1 1 1 1 1 1 1 1 1 1 1 1 1 1 1 1 1 1 1 1 1 1 1 1 1 1 1 1 1 1 1 1 1 1 1 1 1 1 1 1 1 1 1 1 1 1 1 1 1 1 1 1 1 1 1 1 1 1 1 1 1 1 1 1 1 1 1 1 1 1 1 1 1 1 1 1 1 1 1 1 1 1 1 1 1 1 1 1 1 1 1 1 1 1 1 1 1 1 1 1 1 1 1 1 1 1 1 1 1 1 1 1 1 1 1 1 1 1 1 1 1 1 1 1 1 1 1 1 1 1 1 1 1 1 1 1 1 1 1 1 1 1 1 1 1 1 1 1 1 1 1 1 1 1 1 1 1 1 1 1 1 1 1 1 1 1 1 1 1 1 1 1 1 1 1 1 1 1 1 1 1 1 1 1 1 1 1 1 1 1 1 1 1 1 1 1 1 1 1 1 1 1 1 1 1 1 1 1 1 1 1 1 1 1 1 1 1 1 1 1 1 1 1 1 1 1 1 1 1 1 1 1 1 1 1 1 1 1 1 1 1 1 1 1 1 1 1 1 1 1 1 1 1 1 1 1 1 1 1 1 1 1 1 1 1 1 1 1 1 1 1 1 1 1 1 1 1 1 1 1 1 1 1 1 1 1 1 1 1 1 1 1 1 1 1 1 1 1 1 1 1 1 1 1 1 1 1 1 1 1 1 1 1 1 1 1 1 1 1 1 1 1 1 1 1 1 1 1 1 1 1 1 1 1 1 1 1 1 1 1 1 1 1 1 1 1 1 1 1 1 1 1 1 1 1 1 1 1 1 1 1 1 1 1 1 1 1 1 1 1 1 1 1 1 1 1 1 1 1 1 1 1 1 1 1 1 1 1 1 1 1 1 1 1 1 1 1 1 1 1 1 1 1 1 1 1 1 1 1 1 1 1 1 1 1 1 1 1 1 1 1 1 1 1 1 1 1 1 1 1 1 1 1 1 1 1 1 1 1 1 1 1 1 1 1 1 1 1 1 1 1 1 1 1 1 1 1 1 1 1 1 1 1 1 1 1 1 1 1 1 1 1 1 1 1 1 1 1 1 1 1 1 1 1 1 1 1 1 1 1 1 1 1 1 1 1 1 1 1 1 1 1 1 1 1 1 1 1 1 1 1 1 1 1 1 1 1 1 1 1 1 1 1 1 1 1 1 1 1 1 1 1 1 1 1 1 1 1 1 1 1 1 1 1 1 1 1 1 1 1 1 1 1 1 1 1 1 1 1 1 1 1 1 1 1 1 1 1 1 1 1 1 1 1 1 1 1 1 1 1 1 1 1 1 1 1 1 1 1 1 1 1 1 1 1 1 1 1 1 1 1 1 1 1 1 1 1 1 1 1 1 1 1 1 1 1 1 1 1 1 1 1 1 1 1 1 1 1 1 1 1 1 1 1 1 1 1 1 1 1 1 1 1 1 1 1 1 1 1 1 1 1 1 1 1 1 1 1 1 1 1 1 1 1 1 1 1 1 1 1 1 1 1 1 1 1 1 1 1 1 1 1 1 1 1 1 1 1 1 1 1 1 1 1 1 1 1 1 1 1 1 1 1 1 1 1 1 1 1 1 1 1 1 1 1 1 1 1 1 1 1 1 1 1 1 1 1 1 1 1 1 1 1 1 1 1 1 1 1 1 1 1 1 1 1 1 1 1 1 1 1 1 1 1 1 1 1 1 1 1 1 1 1 1 1 1 1 1 1 1 1 1 1 1 1 1 1 1 1 1 1 1 1 1 1 1 1 1 1 1 1 1 1 1 1 1 1 1 1 1 1 1 1 1 1 1 1 1 1 1 1 1 1 1 1 1 1 1 1 1 1 1 1 1 1 1 1 1 1 1 1 1 1 1 1 1 1 1 1 1 1 1 1 1 1 1 1 1 1 1 1 1 1 1 1 1 1 1 1 1 1 1 1 1 1 1 1 1 1 1 1 1 
SCALARS Marker double 1
LOOKUP_TABLE default